LAMMPS data file via write_data, version 3 Mar 2020, timestep = 1000000

7480 atoms
14 atom types
7260 bonds
12 bond types
12760 angles
19 angle types
15400 dihedrals
24 dihedral types

-1.8270286048880177e+01 1.8270286048880177e+01 xlo xhi
-1.8270286048880177e+01 1.8270286048880177e+01 ylo yhi
-3.6540572097760354e+01 3.6540572097760354e+01 zlo zhi

Masses

1 14.007
2 12.011
3 12.011
4 12.011
5 1.008
6 1.008
7 1.008
8 12.011
9 1.008
10 12.011
11 18.998
12 32.066
13 14
14 15.999

Bond Coeffs # harmonic

1 477.055 1.315
2 427.103 1.378
3 520.076 1.341
4 336.998 1.466
5 339.986 1.08
6 339.986 1.08
7 339.986 1.09
8 267.925 1.529
9 441.922 1.323
10 233.031 1.818
11 374.88 1.57
12 637.07 1.437

Angle Coeffs # harmonic

1 70.0048 126.4
2 70.0048 108
3 70.0048 125.6
4 70.0048 109.8
5 35.0024 125.1
6 70.0048 107.1
7 35.0024 122
8 35.0024 130.9
9 37.5 110.7
10 32.9947 107.8
11 58.3533 112.7
12 37.5 110.7
13 93.3317 107.1
14 82.935 111.7
15 91.3002 103.5
16 103.967 102.6
17 94.2878 113.6
18 115.798 118.5
19 80.1864 125.6

Dihedral Coeffs # opls

1 0 4.65105 0 0
2 0 4.65105 0 0
3 0 4.65105 0 0
4 0 4.65105 0 0
5 0 3 0 0
6 0 3 0 0
7 0 3 0 0
8 0 3 0 0
9 0 10.7505 0 0
10 0 10.7505 0 0
11 0 10.7505 0 0
12 0 0 0 0
13 0 0 0.124044 0
14 -1.25934 0 0 0
15 -1.70973 1.45947 0.189747 0
16 0 0 0.087715 0
17 0 0 0.3 0
18 0 0 0.315966 0
19 0 0 0.346797 0
20 7.83293 -2.49044 -0.763623 0
21 0 0 -0.003585 0
22 0 2 0 0
23 0 2.2 0 0
24 0 2.2 0 0

Atoms # full

6495 375 12 1.0200000000000000e+00 -1.3449397584083032e+01 -1.7074833854231507e+01 -3.2897218665302582e+01 0 0 0
6496 375 13 -6.6000000000000003e-01 -1.4047178478950789e+01 -1.6471799275613094e+01 -3.4268819691207696e+01 0 0 0
6497 375 14 -5.3000000000000003e-01 -1.2530445016121490e+01 -1.6208093891757816e+01 -3.2242702501670777e+01 0 0 0
6499 375 12 1.0200000000000000e+00 -1.4524533549175814e+01 -1.4995488792876930e+01 -3.4492872753789513e+01 0 0 0
6501 375 14 -5.3000000000000003e-01 -1.5916199387059123e+01 -1.4965555700837548e+01 -3.4748599286136255e+01 0 0 0
6500 375 14 -5.3000000000000003e-01 -1.4124606752360759e+01 -1.4006145296621483e+01 -3.3584088777941723e+01 0 0 0
6503 375 11 -1.6000000000000000e-01 -1.2482237425139600e+01 -1.4862589798184562e+01 -3.5931484513280822e+01 0 0 0
6491 375 10 3.4999999999999998e-01 -1.4987624881351124e+01 -1.7027816580753857e+01 -3.1849363437595557e+01 0 0 0
6494 375 11 -1.6000000000000000e-01 -1.4680591611780828e+01 -1.7299868571866853e+01 -3.0654099391940630e+01 0 0 0
6493 375 11 -1.6000000000000000e-01 -1.5688164892236676e+01 -1.5883929633974731e+01 -3.1838274960224396e+01 0 0 0
750 40 6 2.0999999999999999e-01 -1.2354139170507349e+01 -1.2090774745692437e+01 -3.2555792279192083e+01 0 0 0
1998 106 1 1.4999999999999999e-01 -1.6503345156952712e+01 -1.0959279878942935e+01 -3.2278798262530636e+01 1 0 0
745 40 3 -1.3000000000000000e-01 -1.1664624222827662e+01 -1.1866797242194616e+01 -3.1755290444661512e+01 0 0 0
2013 106 9 5.9999999999999998e-02 -1.6215597490794380e+01 -1.3337027722864100e+01 -3.1004379090803063e+01 1 0 0
2009 106 8 -5.0000000000000003e-02 -1.5416689916180005e+01 -1.2648834139180360e+01 -3.0728269918450675e+01 1 0 0
744 40 1 1.4999999999999999e-01 -1.1199916501645346e+01 -1.0701437670496881e+01 -3.1287193168530909e+01 0 0 0
2014 106 9 5.9999999999999998e-02 -1.4607198177028096e+01 -1.2742692875659854e+01 -3.1452157779387086e+01 1 0 0
6914 403 11 -1.6000000000000000e-01 -1.1098632352809899e+01 -1.5966363169404188e+01 -2.9129015132992773e+01 0 0 0
6492 375 11 -1.6000000000000000e-01 -1.5995148006601225e+01 -1.7837233801560131e+01 -3.2207014572167694e+01 0 0 0
1999 106 3 -1.3000000000000000e-01 -1.6713277259568208e+01 -9.7335681299827215e+00 -3.2867556814738471e+01 1 0 0
1997 106 2 -1.1000000000000000e-01 -1.6972746703046990e+01 -1.1887551857339108e+01 -3.3187395004804550e+01 1 0 0
2003 106 4 -1.7000000000000001e-01 -1.5956216267923830e+01 -1.1192012877699453e+01 -3.0916408775040516e+01 1 0 0
2012 106 9 5.9999999999999998e-02 -1.5205738371230002e+01 -1.2684967091943472e+01 -2.9659488447512899e+01 1 0 0
2002 106 5 2.0999999999999999e-01 -1.6969246566567222e+01 -1.2959130454207717e+01 -3.3052832606248586e+01 1 0 0
1996 106 1 1.4999999999999999e-01 -1.7418365827274972e+01 -1.1257836825193500e+01 -3.4248744160694947e+01 1 0 0
2008 106 7 1.3000000000000000e-01 -1.7414246138416871e+01 -1.2711608925790250e+01 -3.5670517042650495e+01 1 0 0
5822 330 14 -5.3000000000000003e-01 -1.2923540879677612e+01 -1.1090362278474137e+01 -2.8083976131442306e+01 0 0 0
751 40 6 2.0999999999999999e-01 -1.0967519598043891e+01 -1.3876515532448245e+01 -3.1469127725293362e+01 0 0 0
2001 106 4 -1.7000000000000001e-01 -1.8012024474429275e+01 -1.1868637688512328e+01 -3.5323875230376693e+01 1 0 0
2920 154 7 1.3000000000000000e-01 -1.6704808310375103e+01 -1.6695684976795672e+01 -2.8360648320543984e+01 0 0 0
6502 375 10 3.4999999999999998e-01 -1.3734834551128317e+01 -1.4616335476372351e+01 -3.6143241522030891e+01 0 0 0
2000 106 3 -1.3000000000000000e-01 -1.7237035423084603e+01 -9.9248765906028158e+00 -3.4059804185636850e+01 1 0 0
6504 375 11 -1.6000000000000000e-01 -1.3850437655947282e+01 -1.3352957491505641e+01 -3.6506396817431821e+01 0 0 0
2011 106 7 1.3000000000000000e-01 -1.6758538041222966e+01 -1.1036790058841065e+01 -3.0195100488128009e+01 1 0 0
2010 106 7 1.3000000000000000e-01 -1.5102279497263211e+01 -1.0517394825835620e+01 -3.0854907317676599e+01 1 0 0
749 40 4 -1.7000000000000001e-01 -1.1464457500057389e+01 -9.3351646844072498e+00 -3.1816596682380098e+01 0 0 0
758 40 9 5.9999999999999998e-02 -1.3429997391308214e+01 -9.7834342090886643e+00 -3.2671330866511234e+01 0 0 0
2007 106 7 1.3000000000000000e-01 -1.8095460140804544e+01 -1.1247262287793236e+01 -3.6215520363697046e+01 1 0 0
2005 106 6 2.0999999999999999e-01 -1.7550289081897049e+01 -9.2853927525494520e+00 -3.4871797144922439e+01 1 0 0
4239 224 11 -1.6000000000000000e-01 -1.3237040347098034e+01 -1.0093103972142387e+01 -3.5730977587369004e+01 0 0 1
6911 403 10 3.4999999999999998e-01 -1.1828254787129632e+01 -1.5806573963234742e+01 -2.8025147175271687e+01 0 0 0
6913 403 11 -1.6000000000000000e-01 -1.2998960923999723e+01 -1.5359188811979843e+01 -2.8539459483906757e+01 0 0 0
1719 91 6 2.0999999999999999e-01 -1.5370621337733816e+01 -1.7645128593924785e+01 -3.6085047369620554e+01 0 1 1
746 40 3 -1.3000000000000000e-01 -1.0867452031018656e+01 -1.2829870590513872e+01 -3.1222306242586910e+01 0 0 0
743 40 2 -1.1000000000000000e-01 -1.0384799211490073e+01 -1.0949055298260005e+01 -3.0273854353559905e+01 0 0 0
748 40 5 2.0999999999999999e-01 -9.6930765073551637e+00 -1.0258852937006163e+01 -2.9813919159738969e+01 0 0 0
742 40 1 1.4999999999999999e-01 -1.0146986332321061e+01 -1.2238648530845778e+01 -3.0234963009939715e+01 0 0 0
4807 262 10 3.4999999999999998e-01 -5.6285832373734976e+00 -1.5209239796732325e+01 -3.2184830114574837e+01 0 0 1
4804 262 12 1.0200000000000000e+00 -7.5149304454513253e+00 -1.5502398533387751e+01 -3.2148070939792667e+01 0 0 1
4810 262 11 -1.6000000000000000e-01 -5.1539653573828179e+00 -1.4167579935675223e+01 -3.1477415848042025e+01 0 0 1
4806 262 14 -5.3000000000000003e-01 -8.0754488763915155e+00 -1.4414109866401395e+01 -3.2938483698801143e+01 0 0 1
4801 262 13 -6.6000000000000003e-01 -7.7449040471614685e+00 -1.6913811694329112e+01 -3.2769263616507722e+01 0 0 1
4800 262 12 1.0200000000000000e+00 -7.9056064077116819e+00 -1.7238911143125875e+01 -3.4321386458982467e+01 0 0 1
4803 262 14 -5.3000000000000003e-01 -7.3329806260217065e+00 -1.6340499863840439e+01 -3.5305259261815067e+01 0 0 1
4796 262 10 3.4999999999999998e-01 -9.7184474908534213e+00 -1.7166967030865511e+01 -3.4608593581827151e+01 0 0 1
728 39 4 -1.7000000000000001e-01 -5.1306922010383120e+00 -1.0883732017139636e+01 -3.2201714054225121e+01 0 0 0
747 40 4 -1.7000000000000001e-01 -9.1823618276409036e+00 -1.3009778557516169e+01 -2.9427677029096007e+01 0 0 0
752 40 7 1.3000000000000000e-01 -9.7169130611146421e+00 -1.3926303814492147e+01 -2.9178004382838381e+01 0 0 0
753 40 7 1.3000000000000000e-01 -8.2698859938440510e+00 -1.3170425417564875e+01 -3.0001855078622665e+01 0 0 0
754 40 7 1.3000000000000000e-01 -8.8807308428340068e+00 -1.2470922068270649e+01 -2.8529483064819168e+01 0 0 0
735 39 7 1.3000000000000000e-01 -4.9119962477551651e+00 -1.1043927656065428e+01 -3.1145963405152276e+01 0 0 0
734 39 7 1.3000000000000000e-01 -5.2696648408976987e+00 -1.1799336925882521e+01 -3.2776565550696340e+01 0 0 0
733 39 7 1.3000000000000000e-01 -6.0936442166334333e+00 -1.0405603173377985e+01 -3.2381202828430162e+01 0 0 0
4799 262 11 -1.6000000000000000e-01 -1.0345732356410968e+01 -1.6005114449360022e+01 -3.4298436290783208e+01 0 0 1
4808 262 11 -1.6000000000000000e-01 -5.2589994350231750e+00 -1.5087228449387503e+01 -3.3427147546501104e+01 0 0 1
7236 424 14 -5.3000000000000003e-01 -6.1488956384869393e+00 -1.0561797179909004e+01 -2.8851034720395127e+01 0 0 0
4988 274 11 -1.6000000000000000e-01 -7.7002552308882244e+00 -1.0916888267910361e+01 -3.5121725880674056e+01 0 0 0
4809 262 11 -1.6000000000000000e-01 -4.9282741774208283e+00 -1.6204158762267078e+01 -3.1689355974388352e+01 0 0 1
4805 262 14 -5.3000000000000003e-01 -7.8132851868432667e+00 -1.5485829915439504e+01 -3.0737372767409752e+01 0 0 1
2567 136 2 -1.1000000000000000e-01 -4.2846116849572384e+00 -1.5913824027223932e+01 -3.6473960541845315e+01 0 1 1
2980 157 7 1.3000000000000000e-01 -5.8976134654584325e+00 -1.3371324954288141e+01 -2.7952547434737458e+01 0 0 0
723 39 1 1.4999999999999999e-01 -4.0142762881179914e+00 -1.0106653602630116e+01 -3.2780653244319844e+01 0 0 0
2983 157 9 5.9999999999999998e-02 -5.1493541629334860e+00 -1.5744230343387496e+01 -2.8166009336154836e+01 0 0 0
2572 136 5 2.0999999999999999e-01 -3.8592340164125742e+00 -1.5676924464836441e+01 -3.5509941645096184e+01 0 1 1
2978 157 8 -5.0000000000000003e-02 -4.4518113218234925e+00 -1.4925696134639127e+01 -2.7988426328710588e+01 0 0 0
4798 262 11 -1.6000000000000000e-01 -9.9855632997221555e+00 -1.7483593906810963e+01 -3.5858871392296059e+01 0 0 1
2981 157 9 5.9999999999999998e-02 -4.1800876407064509e+00 -1.4575111413891310e+01 -2.8984095244354567e+01 0 0 0
4987 274 10 3.4999999999999998e-01 -7.3616247085976925e+00 -9.7244047960645670e+00 -3.5692948671350550e+01 0 0 0
3685 194 9 5.9999999999999998e-02 -8.9013952538670740e+00 -1.3761266548566162e+01 -3.5616558838227590e+01 0 0 0
4797 262 11 -1.6000000000000000e-01 -1.0353451838082727e+01 -1.8091745412621066e+01 -3.3948755976966275e+01 0 0 1
757 40 7 1.3000000000000000e-01 -1.0841998915136358e+01 -9.2110407900511238e+00 -3.2702733552963032e+01 0 0 0
7234 424 12 1.0200000000000000e+00 -5.7885702797223191e+00 -9.2696597860023591e+00 -2.8304205342832297e+01 0 0 0
4989 274 11 -1.6000000000000000e-01 -8.5642300304946151e+00 -9.2090054807280151e+00 -3.5951085676244276e+01 0 0 0
2559 135 7 1.3000000000000000e-01 -6.3869961469784080e+00 -1.7950273019108156e+01 -3.0206121473054242e+01 0 0 0
6920 403 14 -5.3000000000000003e-01 -8.6738642576602683e+00 -1.7850109261576133e+01 -2.8218130789773671e+01 0 0 0
2578 136 7 1.3000000000000000e-01 -4.5702188718120915e+00 -1.7941299516777132e+01 -3.4911124150416377e+01 0 1 1
3686 194 9 5.9999999999999998e-02 -1.0088902217435853e+01 -1.4692208349344559e+01 -3.6463213652501132e+01 0 0 0
3640 192 7 1.3000000000000000e-01 1.2116378388407518e+00 -1.3572728000492329e+01 -3.5912074089911052e+01 0 0 0
3642 192 7 1.3000000000000000e-01 2.4646489660902069e+00 -1.4543448385503920e+01 -3.5202562972034457e+01 0 0 0
2982 157 9 5.9999999999999998e-02 -3.5081672192326194e+00 -1.5233248537974978e+01 -2.7537818604087885e+01 0 0 0
724 39 2 -1.1000000000000000e-01 -3.2596320747473961e+00 -1.0454413610540904e+01 -3.3840965635115190e+01 0 0 0
729 39 5 2.0999999999999999e-01 -3.2445527653099755e+00 -1.1392852586790800e+01 -3.4375292216454881e+01 0 0 0
6627 384 11 -1.6000000000000000e-01 -2.1833178398954778e+00 -1.6575328956990806e+01 -3.2577072462222553e+01 0 0 1
6633 384 14 -5.3000000000000003e-01 -1.9944197394343683e+00 -1.3692341986576880e+01 -3.3586056787714625e+01 0 0 1
6629 384 11 -1.6000000000000000e-01 -9.9859271652057613e-01 -1.6403819509005356e+01 -3.4366464401737389e+01 0 0 1
6631 384 13 -6.6000000000000003e-01 -1.1232137965283702e+00 -1.3959574846780351e+01 -3.1275671652497845e+01 0 0 1
6630 384 12 1.0200000000000000e+00 -8.8577252844995114e-01 -1.4203127486079362e+01 -3.2829573150902867e+01 0 0 1
6626 384 10 3.4999999999999998e-01 -1.0298252554807261e+00 -1.6039544715881217e+01 -3.3088302149873314e+01 0 0 1
6632 384 14 -5.3000000000000003e-01 4.1939178454016335e-01 -1.3925691988072003e+01 -3.3312635367303550e+01 0 0 1
6634 384 12 1.0200000000000000e+00 -2.2245966089602773e-01 -1.3224962713150047e+01 -3.0252339896414053e+01 0 0 1
6636 384 14 -5.3000000000000003e-01 -5.2112891976106179e-01 -1.3741009129364395e+01 -2.8911641958725220e+01 0 0 1
6637 384 10 3.4999999999999998e-01 -1.0904536008604777e+00 -1.1632975034430300e+01 -3.0249157870153439e+01 0 0 1
6635 384 14 -5.3000000000000003e-01 1.1446378180148404e+00 -1.2955786951437432e+01 -3.0604936174300924e+01 0 0 1
6628 384 11 -1.6000000000000000e-01 -1.9744562339412484e-02 -1.6669037449831162e+01 -3.2498341202223237e+01 0 0 1
6639 384 11 -1.6000000000000000e-01 -9.7050808112913223e-01 -1.1002233802790139e+01 -3.1370506606204096e+01 0 0 1
6640 384 11 -1.6000000000000000e-01 -5.6054314161759489e-01 -1.0840547505595854e+01 -2.9406695485828276e+01 0 0 1
6638 384 11 -1.6000000000000000e-01 -2.3966077601905349e+00 -1.1703250407717357e+01 -2.9894186842879776e+01 0 0 1
725 39 1 1.4999999999999999e-01 -2.2598394065215834e+00 -9.6156056681390805e+00 -3.3894369546921190e+01 0 0 0
3635 192 4 -1.7000000000000001e-01 2.2905819724436220e+00 -1.3627507611558277e+01 -3.5767233785220874e+01 0 0 0
2609 138 4 -1.7000000000000001e-01 1.4541130016971766e+00 -1.6791883222014214e+01 -2.9534362038462643e+01 0 0 0
3630 192 1 1.4999999999999999e-01 2.8636574636196599e+00 -1.2509493485093264e+01 -3.5004979265205122e+01 0 0 0
736 39 8 -5.0000000000000003e-02 -2.1067339485766867e-01 -1.0803812416149905e+01 -3.4572736669279877e+01 0 0 0
2608 138 3 -1.3000000000000000e-01 2.8167727570433372e+00 -1.5271986593091109e+01 -2.7937912846963179e+01 0 0 0
2604 138 1 1.4999999999999999e-01 2.0009577777181371e+00 -1.6336406855093937e+01 -2.8285069250232215e+01 0 0 0
740 39 9 5.9999999999999998e-02 3.5478424074538906e-01 -1.0767456196351613e+01 -3.3641589066921405e+01 0 0 0
6734 391 11 -1.6000000000000000e-01 3.2298251124698276e+00 -1.6681997779751015e+01 -3.3376427797161789e+01 0 0 0
741 39 9 5.9999999999999998e-02 -7.5937944895757092e-01 -1.1731934250487996e+01 -3.4732772614461958e+01 0 0 0
3631 192 2 -1.1000000000000000e-01 3.0964275944033908e+00 -1.2408907097012101e+01 -3.3704164708584067e+01 0 0 0
3634 192 3 -1.3000000000000000e-01 3.2970087880843888e+00 -1.1374806315008414e+01 -3.5699801064209367e+01 0 0 0
730 39 4 -1.7000000000000001e-01 -1.1128425357036948e+00 -9.5914923388341524e+00 -3.4832198250093448e+01 0 0 0
3542 187 4 -1.7000000000000001e-01 2.3326286760387109e+00 -9.8802408835990487e+00 -2.7835237605536157e+01 0 0 0
3636 192 5 2.0999999999999999e-01 2.7932955675247841e+00 -1.3095216433488996e+01 -3.2927318223001393e+01 0 0 0
6546 378 14 -5.3000000000000003e-01 -2.6936912156056199e+00 -1.7665635835969191e+01 -2.7550806319561925e+01 0 1 0
3551 187 9 5.9999999999999998e-02 2.0975123138742719e+00 -9.7596078117314775e+00 -3.0056294134022792e+01 0 0 0
3548 187 8 -5.0000000000000003e-02 2.7015621292613332e+00 -9.3932241020614793e+00 -2.9226241852352111e+01 0 0 0
2615 138 7 1.3000000000000000e-01 3.9463764244192606e-01 -1.6661911257878554e+01 -2.9755086388829721e+01 0 0 0
739 39 9 5.9999999999999998e-02 5.6951571714083782e-01 -1.0750182948854230e+01 -3.5332031620059674e+01 0 0 0
2616 138 7 1.3000000000000000e-01 2.0107334099463889e+00 -1.6496269944753859e+01 -3.0423680040598811e+01 0 0 0
2613 138 6 2.0999999999999999e-01 3.0833612070288541e+00 -1.4538959039038438e+01 -2.8684907614503768e+01 0 0 0
3549 187 7 1.3000000000000000e-01 2.5040638733505549e+00 -1.0948056099403388e+01 -2.7699294098283087e+01 0 0 0
737 39 7 1.3000000000000000e-01 -1.4431884635491663e+00 -9.8407735193838608e+00 -3.5840578354841000e+01 0 0 0
3550 187 7 1.3000000000000000e-01 1.2956309279300504e+00 -9.6656480655267991e+00 -2.7577002098625290e+01 0 0 0
2614 138 7 1.3000000000000000e-01 1.5056910231049514e+00 -1.7873012252322606e+01 -2.9663201955764499e+01 0 0 0
3632 192 1 1.4999999999999999e-01 3.9413876867566371e+00 -1.1365955583486757e+01 -3.3590231125119260e+01 0 0 0
3644 192 7 1.3000000000000000e-01 3.8374990401127489e+00 -9.9834033926930701e+00 -3.1999425446271548e+01 0 0 0
5807 329 14 -5.3000000000000003e-01 7.5467220334961658e+00 -1.0950393830366194e+01 -3.6172394434711926e+01 0 0 0
6731 391 10 3.4999999999999998e-01 3.7903926025030175e+00 -1.7806856411478471e+01 -3.2992103051562822e+01 0 0 0
6732 391 11 -1.6000000000000000e-01 4.1831564937486228e+00 -1.7481934064838143e+01 -3.1806911850339521e+01 0 0 0
3638 192 6 2.0999999999999999e-01 4.2823894921420225e+00 -9.6368624167048687e+00 -3.4951864314429685e+01 0 0 0
3633 192 3 -1.3000000000000000e-01 3.9100963459331703e+00 -1.0627676352418979e+01 -3.4737188857855294e+01 0 0 0
3645 192 7 1.3000000000000000e-01 4.1416860863819691e+00 -1.1560400399419551e+01 -3.1533165492555380e+01 0 0 0
3637 192 4 -1.7000000000000001e-01 4.4480517850183698e+00 -1.0838317095713812e+01 -3.2290024633767949e+01 0 0 0
3643 192 8 -5.0000000000000003e-02 5.9441789593147423e+00 -1.0594673391012801e+01 -3.2142676143031515e+01 0 0 0
5096 282 10 3.4999999999999998e-01 6.6007413411240128e+00 -1.6554644089949463e+01 -2.7874205693745708e+01 0 0 0
5099 282 11 -1.6000000000000000e-01 5.7167431581747756e+00 -1.7084281513331682e+01 -2.8695767711601302e+01 0 0 0
5100 282 12 1.0200000000000000e+00 7.3256266488609851e+00 -1.4982893539873038e+01 -2.8480742809699347e+01 0 0 0
5098 282 11 -1.6000000000000000e-01 7.6165806960508853e+00 -1.7422490093483876e+01 -2.7814964310899548e+01 0 0 0
5102 282 14 -5.3000000000000003e-01 8.3637597586079515e+00 -1.4608030167039692e+01 -2.7536302912116241e+01 0 0 0
5103 282 14 -5.3000000000000003e-01 7.7681198376155809e+00 -1.5422258461000151e+01 -2.9757703710637649e+01 0 0 0
5101 282 13 -6.6000000000000003e-01 6.1405386469874701e+00 -1.4027657811010515e+01 -2.8602139697531445e+01 0 0 0
6745 391 11 -1.6000000000000000e-01 6.7715234450991142e+00 -1.4632209361280946e+01 -3.2841487129055942e+01 0 0 0
6736 391 13 -6.6000000000000003e-01 6.1333776169643128e+00 -1.7188945361708505e+01 -3.4167789160729072e+01 0 0 0
6742 391 10 3.4999999999999998e-01 7.0660204812619973e+00 -1.4549773776507459e+01 -3.4133792521032483e+01 0 0 0
6739 391 12 1.0200000000000000e+00 6.1228601870019821e+00 -1.5852113830579709e+01 -3.5030709405012097e+01 0 0 0
6743 391 11 -1.6000000000000000e-01 6.8033975880151765e+00 -1.3347898742493550e+01 -3.4495942195120811e+01 0 0 0
6744 391 11 -1.6000000000000000e-01 8.4487801074482718e+00 -1.4650906719432225e+01 -3.4270667235062795e+01 0 0 0
5808 329 14 -5.3000000000000003e-01 9.2221759412064017e+00 -1.0160268063721213e+01 -3.4455007432235647e+01 0 0 0
2717 143 9 5.9999999999999998e-02 9.4649531866198107e+00 -1.2886974390844266e+01 -2.9280484276309238e+01 0 0 0
3648 192 9 5.9999999999999998e-02 6.1871702168677585e+00 -1.0592392719466508e+01 -3.1080108479946489e+01 0 0 0
2624 139 2 -1.1000000000000000e-01 1.0476664472952509e+01 -1.7297026374553589e+01 -3.6091087068703111e+01 0 1 1
2715 143 9 5.9999999999999998e-02 1.0110470617937715e+01 -1.2301296922465481e+01 -3.0725412208577758e+01 0 0 0
6740 391 14 -5.3000000000000003e-01 4.8309889761103921e+00 -1.5262471549625136e+01 -3.5227876674462408e+01 0 0 0
2712 143 8 -5.0000000000000003e-02 1.0394561185026342e+01 -1.2884729486322136e+01 -2.9849627425385467e+01 0 0 0
5805 329 12 1.0200000000000000e+00 8.6362248936257977e+00 -1.0109531569125371e+01 -3.5810926055537031e+01 0 0 0
2626 139 3 -1.3000000000000000e-01 1.0538241579266963e+01 -1.7260704656463204e+01 -3.3920166129352779e+01 0 1 1
2631 139 6 2.0999999999999999e-01 1.0955258782387746e+01 -1.7012049124643287e+01 -3.2955455263820994e+01 0 1 1
3646 192 9 5.9999999999999998e-02 6.5464337179579468e+00 -1.1284130463872472e+01 -3.2734316339057386e+01 0 0 0
3647 192 9 5.9999999999999998e-02 6.1400136612665195e+00 -9.5926139327153024e+00 -3.2524285362538933e+01 0 0 0
5106 282 14 -5.3000000000000003e-01 4.6875355936207974e+00 -1.2174423232076375e+01 -2.8136243344333064e+01 0 0 0
5104 282 12 1.0200000000000000e+00 5.8873954233978862e+00 -1.2821790110841960e+01 -2.7642951024565022e+01 0 0 0
5109 282 11 -1.6000000000000000e-01 7.3965549543613545e+00 -1.1208510347065516e+01 -2.9193944699005979e+01 0 0 0
5107 282 10 3.4999999999999998e-01 7.1418085524753430e+00 -1.1432553976118806e+01 -2.7898221230539537e+01 0 0 0
5108 282 11 -1.6000000000000000e-01 6.6515993366300314e+00 -1.0258256565324283e+01 -2.7577636064148656e+01 0 0 0
6741 391 14 -5.3000000000000003e-01 6.8397536004326307e+00 -1.6037126265395155e+01 -3.6248565069872797e+01 0 0 0
3553 187 9 5.9999999999999998e-02 3.7322089381514187e+00 -9.6758043455283431e+00 -2.9440754214510765e+01 0 0 0
2641 139 9 5.9999999999999998e-02 1.0745526130300036e+01 -1.4359737734117585e+01 -3.5328779297140692e+01 0 1 1
2716 143 9 5.9999999999999998e-02 1.0599766508465104e+01 -1.3896259461940115e+01 -3.0200052693090488e+01 0 0 0
2623 139 1 1.4999999999999999e-01 9.4276518092400980e+00 -1.7993616196406155e+01 -3.5622782507848193e+01 0 1 1
2627 139 3 -1.3000000000000000e-01 9.4575499203488373e+00 -1.8012680163230677e+01 -3.4227644417715169e+01 0 1 1
1216 64 9 5.9999999999999998e-02 8.2200522218752976e+00 -1.8112758993728434e+01 -3.0086158252883116e+01 0 1 0
2006 106 7 1.3000000000000000e-01 1.7515350528247886e+01 -1.2228010627050367e+01 -3.5143923262057854e+01 0 0 0
2702 143 3 -1.3000000000000000e-01 1.1199403325961317e+01 -9.8439174010024502e+00 -3.0279666807886091e+01 0 0 0
2707 143 6 2.0999999999999999e-01 1.1458519660489591e+01 -1.0122412445722210e+01 -3.1290458193932317e+01 0 0 0
2625 139 1 1.4999999999999999e-01 1.1101698313357169e+01 -1.6743192423554007e+01 -3.5097987878446787e+01 0 1 1
2700 143 2 -1.1000000000000000e-01 1.1011581695448449e+01 -9.8755369764307872e+00 -2.8120934393885868e+01 0 0 0
2701 143 1 1.4999999999999999e-01 1.1305973411087511e+01 -1.0659205084942990e+01 -2.9177508417333176e+01 0 0 0
2706 143 4 -1.7000000000000001e-01 1.1508813539320967e+01 -1.2132772582255024e+01 -2.9093099775370611e+01 0 0 0
2714 143 7 1.3000000000000000e-01 1.1615190964448104e+01 -1.2427480219229899e+01 -2.8049102059175834e+01 0 0 0
2713 143 7 1.3000000000000000e-01 1.2407683398227510e+01 -1.2462038990300261e+01 -2.9614364192720377e+01 0 0 0
4628 250 11 -1.6000000000000000e-01 1.0970449417462708e+01 -1.7337411180283478e+01 -2.8022030399002759e+01 0 0 1
4627 250 10 3.4999999999999998e-01 1.2272879827521262e+01 -1.7467266267248224e+01 -2.8382089442786697e+01 0 0 1
6533 377 11 -1.6000000000000000e-01 1.6360086916150316e+01 -1.5294184992272712e+01 -3.5113458137424850e+01 0 0 1
4617 250 11 -1.6000000000000000e-01 1.6655210012917571e+01 -1.3791078233478883e+01 -2.9559152927414360e+01 0 0 1
4173 220 7 1.3000000000000000e-01 1.6469374122080342e+01 -1.5980471615859827e+01 -3.2311185214516165e+01 0 0 1
4167 220 4 -1.7000000000000001e-01 1.7031573143059717e+01 -1.6904537062408920e+01 -3.2445852561435736e+01 0 0 1
4172 220 7 1.3000000000000000e-01 1.7491141604380982e+01 -1.6696183631265523e+01 -3.3412023185724784e+01 0 0 1
6162 353 11 -1.6000000000000000e-01 1.5899831889892734e+01 -1.3192449698143076e+01 -3.2920668708164541e+01 -1 0 0
6164 353 11 -1.6000000000000000e-01 1.4066265692871532e+01 -1.3195800605246575e+01 -3.2022211734687630e+01 -1 0 0
6163 353 11 -1.6000000000000000e-01 1.4307302870202333e+01 -1.2355863080742873e+01 -3.4003013395561233e+01 -1 0 0
6161 353 10 3.4999999999999998e-01 1.4861849535430473e+01 -1.2440648711797753e+01 -3.2774172588588982e+01 -1 0 0
4625 250 14 -5.3000000000000003e-01 1.2106396893598149e+01 -1.5752452817596486e+01 -3.0199757048170031e+01 0 0 1
4624 250 12 1.0200000000000000e+00 1.2936850102273725e+01 -1.5873014759647857e+01 -2.9028250389174950e+01 0 0 1
4621 250 13 -6.6000000000000003e-01 1.4463287458030507e+01 -1.6160166999873159e+01 -2.9485438931898155e+01 0 0 1
4626 250 14 -5.3000000000000003e-01 1.2760805758569566e+01 -1.4858809609515133e+01 -2.7970943759759255e+01 0 0 1
4616 250 10 3.4999999999999998e-01 1.6267105355931484e+01 -1.4370524891287401e+01 -2.8389863317507540e+01 0 0 1
2630 139 4 -1.7000000000000001e-01 1.2265790755601326e+01 -1.5853654354498337e+01 -3.5104267591025696e+01 0 1 1
6165 353 12 1.0200000000000000e+00 1.5363607419530570e+01 -1.0721022571991798e+01 -3.2187003664258597e+01 -1 0 0
6166 353 13 -6.6000000000000003e-01 1.6066039273621989e+01 -1.0965960490010012e+01 -3.0764130682187680e+01 -1 0 0
6171 353 14 -5.3000000000000003e-01 1.4320186164342219e+01 -1.0122459196633640e+01 -2.9040374011310245e+01 -1 0 0
6169 353 12 1.0200000000000000e+00 1.5679880596753026e+01 -1.0325340402015602e+01 -2.9388486116992262e+01 -1 0 0
6170 353 14 -5.3000000000000003e-01 1.6403181693957542e+01 -1.1054872605635179e+01 -2.8430431179025128e+01 -1 0 0
4620 250 12 1.0200000000000000e+00 1.5771880709604366e+01 -1.6109455933703796e+01 -2.8569160586447513e+01 0 0 1
4622 250 14 -5.3000000000000003e-01 1.6906414749779980e+01 -1.6638362576881416e+01 -2.9296948900032511e+01 0 0 1
2636 139 8 -5.0000000000000003e-02 1.1797356602497162e+01 -1.4440951405778220e+01 -3.5054631587943554e+01 0 1 1
4174 220 7 1.3000000000000000e-01 1.7822819293942537e+01 -1.6991132069361214e+01 -3.1701184291275727e+01 0 0 1
2640 139 9 5.9999999999999998e-02 1.2439826782817910e+01 -1.3735399539557241e+01 -3.5581441430402705e+01 0 1 1
2639 139 9 5.9999999999999998e-02 1.1804887462529351e+01 -1.4195076550534321e+01 -3.3992751754036490e+01 0 1 1
2637 139 7 1.3000000000000000e-01 1.2996354199580217e+01 -1.6085827936736965e+01 -3.4329365999684448e+01 0 1 1
2638 139 7 1.3000000000000000e-01 1.2827725203736870e+01 -1.6027163745514734e+01 -3.6021995303978855e+01 0 1 1
6168 353 14 -5.3000000000000003e-01 1.4080188220515186e+01 -1.0113589176199751e+01 -3.2055762301859467e+01 -1 0 0
4618 250 11 -1.6000000000000000e-01 1.7254042726178497e+01 -1.4280873924395289e+01 -2.7555728084864445e+01 0 0 1
4162 220 1 1.4999999999999999e-01 1.6240855628380473e+01 -1.8148156215478075e+01 -3.2640361899190381e+01 0 0 1
6532 377 10 3.4999999999999998e-01 1.6319476878828890e+01 -1.5150278860123770e+01 -3.6421812870905612e+01 0 0 1
6167 353 14 -5.3000000000000003e-01 1.6278742363413492e+01 -1.0260552250105407e+01 -3.3191080651224965e+01 -1 0 0
4171 220 6 2.0999999999999999e-01 1.4633634088080615e+01 -1.7966952520217287e+01 -3.1200807119314991e+01 0 0 1
4619 250 11 -1.6000000000000000e-01 1.5247834830494130e+01 -1.3686152118588346e+01 -2.7837986700289100e+01 0 0 1
5823 330 14 -5.3000000000000003e-01 -1.3975181060732222e+01 -9.0526767441999496e+00 -2.7736315334917439e+01 0 0 0
2004 106 6 2.0999999999999999e-01 -1.6543026634602548e+01 -8.8425208972708393e+00 -3.2281511173473461e+01 1 0 0
783 42 3 -1.3000000000000000e-01 -1.4394264853664035e+01 -3.1326547342633676e-01 -3.0691688274092460e+01 0 0 0
755 40 8 -5.0000000000000003e-02 -1.2915712407037370e+01 -9.0337859071467115e+00 -3.2069967104031598e+01 0 0 0
759 40 9 5.9999999999999998e-02 -1.3440668188096101e+01 -8.9727718090308404e+00 -3.1116657760926969e+01 0 0 0
756 40 7 1.3000000000000000e-01 -1.1054344430553106e+01 -8.5491569122971942e+00 -3.1182483903721284e+01 0 0 0
760 40 9 5.9999999999999998e-02 -1.2964272958695004e+01 -8.0454300251719086e+00 -3.2527016898948091e+01 0 0 0
791 42 7 1.3000000000000000e-01 -1.4460472067330761e+01 -4.2790460936578839e-01 -3.4772220125761010e+01 0 0 0
788 42 6 2.0999999999999999e-01 -1.4535986110493562e+01 -7.1545587346304740e-01 -2.9699439340467237e+01 0 0 0
6657 386 11 -1.6000000000000000e-01 -1.3191758640214342e+01 -4.2046145667670931e+00 -3.4030890705288748e+01 0 0 0
6660 386 12 1.0200000000000000e+00 -1.5598271344705234e+01 -5.4838644780970736e+00 -3.3594040218702681e+01 0 0 0
6661 386 13 -6.6000000000000003e-01 -1.5283762852165882e+01 -5.0200704620182011e+00 -3.2137945637366862e+01 0 0 0
6666 386 14 -5.3000000000000003e-01 -1.5411204898219191e+01 -3.8328621189619190e+00 -3.0038427094644035e+01 0 0 0
6656 386 10 3.4999999999999998e-01 -1.4485038165138485e+01 -4.3795521888283169e+00 -3.4506616051012749e+01 0 0 0
6664 386 12 1.0200000000000000e+00 -1.6268344537087383e+01 -4.2706866443830824e+00 -3.1144514395794417e+01 0 0 0
6658 386 11 -1.6000000000000000e-01 -1.4907216115206996e+01 -3.1388637593040301e+00 -3.4454691341299316e+01 0 0 0
6665 386 14 -5.3000000000000003e-01 -1.7156056309950475e+01 -3.4037031767245134e+00 -3.1838661650540143e+01 0 0 0
6662 386 14 -5.3000000000000003e-01 -1.6896588323579113e+01 -5.1284753891748567e+00 -3.4127364621674438e+01 0 0 0
789 42 6 2.0999999999999999e-01 -1.4330032367521410e+01 -1.8571097887694628e+00 -3.2334831638775299e+01 0 0 0
1641 87 5 2.0999999999999999e-01 -1.4450762939958933e+01 -6.3644364923640548e+00 -2.8391606727970867e+01 1 0 0
6663 386 14 -5.3000000000000003e-01 -1.5190804181783301e+01 -6.8401248415194011e+00 -3.3817757968208284e+01 0 0 0
7113 416 14 -5.3000000000000003e-01 -1.1395520306629562e+01 -5.5947947610169271e+00 -3.2507703620566240e+01 0 0 0
6667 386 10 3.4999999999999998e-01 -1.7353480048255729e+01 -5.5866269872278185e+00 -3.0454704113875799e+01 0 0 0
1649 87 7 1.3000000000000000e-01 -1.2250350549493898e+01 -5.0047080980476588e+00 -2.9566932382428007e+01 1 0 0
784 42 3 -1.3000000000000000e-01 -1.4355793588935857e+01 -8.5065540677770224e-01 -3.1943953228957387e+01 0 0 0
1636 87 2 -1.1000000000000000e-01 -1.4381252058942243e+01 -5.5085682508174507e+00 -2.7736581711049638e+01 1 0 0
5830 330 11 -1.6000000000000000e-01 -1.1130665742735124e+01 -7.8904226488021676e+00 -2.7746959334682511e+01 0 0 0
1648 87 8 -5.0000000000000003e-02 -1.1034487599908131e+01 -4.1282935098898186e+00 -2.8027868492949668e+01 1 0 0