7480
Atoms. Timestep: 1000000
1 14.1976 -7.68668 16.6268
2 14.5071 -8.92836 16.3678
1 15.4185 -8.96828 15.3985
3 15.9507 -7.61894 15.2987
3 15.1427 -6.90429 16.0275
4 12.9749 -7.1992 17.3091
5 13.9788 -9.82294 16.6627
4 15.9267 -10.2256 14.7738
6 16.6564 -7.28959 14.5504
6 14.9591 -5.84386 16.1177
7 13.14 -6.12218 17.2793
7 12.0749 -7.58707 16.832
7 12.9602 -7.469 18.3651
8 17.2373 -10.009 14.1595
7 15.9966 -11.0045 15.5331
7 15.2292 -10.4902 13.9791
9 17.1269 -9.48658 13.2092
9 17.8995 -9.56248 14.9012
9 17.6929 -10.9145 13.7587
1 -2.40126 -6.86034 16.8531
2 -3.70491 -6.78866 16.9308
1 -4.17848 -6.62671 15.694
3 -3.12472 -6.2311 14.9301
3 -2.00081 -6.4806 15.6305
4 -1.60118 -6.99283 18.0559
5 -4.33012 -6.96525 17.7935
4 -5.65301 -6.45247 15.2386
6 -3.14483 -5.90948 13.8993
6 -0.939842 -6.40042 15.4453
7 -2.05252 -7.66039 18.7899
7 -0.618614 -7.39984 17.8172
7 -1.52396 -6.05481 18.6057
8 -5.97879 -4.85953 15.246
7 -5.90568 -6.87842 14.2676
7 -6.27871 -7.00669 15.9382
9 -5.21504 -4.20596 14.8245
9 -6.95889 -4.60265 14.8441
9 -5.9087 -4.59472 16.301
1 9.15786 2.5585 21.034
2 8.43282 3.01388 19.9843
1 7.3856 3.66808 20.4442
3 7.34481 3.64719 21.8338
3 8.44417 2.93804 22.1732
4 10.5283 2.06025 20.9612
5 8.76909 2.98148 18.9585
4 6.42089 4.26003 19.5119
6 6.54244 4.08658 22.4078
6 8.78592 2.68774 23.1666
7 10.4851 1.32576 21.7654
7 10.791 1.73651 19.9541
7 11.2677 2.7573 21.3556
8 5.41457 3.37933 18.9232
7 5.84047 5.02291 20.0307
7 6.90925 4.93741 18.8113
9 4.79165 3.75134 18.1098
9 5.88015 2.45125 18.5916
9 4.69225 3.05134 19.6707
1 1.40152 6.78598 -4.21609
2 0.689247 7.00183 -3.03589
1 -0.469935 7.6245 -3.24041
3 -0.549192 7.81244 -4.62548
3 0.589349 7.42845 -5.21404
4 2.57024 5.96703 -4.41245
5 1.11039 6.8135 -2.05938
4 -1.53945 8.1171 -2.28373
6 -1.40715 8.29544 -5.06934
6 0.778464 7.54272 -6.2712
7 2.74263 5.19224 -3.6654
7 2.48496 5.5158 -5.401
7 3.50838 6.52014 -4.36718
8 -1.88358 6.92934 -1.39557
7 -1.24441 9.01733 -1.74463
7 -2.34524 8.52376 -2.89482
9 -2.75279 7.21714 -0.804174
9 -2.03045 6.08616 -2.07053
9 -1.19893 6.69342 -0.580894
1 0.454442 -7.27503 -10.4921
2 -0.66548 -8.00135 -10.5263
1 -1.65646 -7.2323 -10.2774
3 -1.12355 -5.95757 -10.1287
3 0.166582 -5.98164 -10.2719
4 1.79993 -7.76793 -10.7401
5 -0.822095 -9.06844 -10.5829
4 -3.00354 -7.47488 -10.0872
6 -1.81216 -5.16986 -9.86092
6 0.860531 -5.1561 -10.2142
7 2.49901 -7.08262 -11.2194
7 2.16934 -8.04503 -9.75274
7 1.84787 -8.71637 -11.2751
8 -3.27023 -8.9696 -10.1139
7 -3.44955 -7.08466 -9.17233
7 -3.54866 -6.94613 -10.8691
9 -3.11102 -9.39745 -11.1037
9 -2.7558 -9.58157 -9.37295
9 -4.31137 -9.17062 -9.86143
1 -14.6898 11.8362 -19.9244
2 -13.8697 11.4824 -19.029
1 -12.6579 11.2977 -19.4925
3 -12.6618 11.6792 -20.8098
3 -13.9419 12.0236 -21.0805
4 -16.11 12.1437 -19.7279
5 -14.2597 11.2181 -18.0571
4 -11.4809 10.8402 -18.7554
6 -11.7707 11.658 -21.4197
6 -14.3442 12.4391 -21.9926
7 -16.543 11.2745 -19.2328
7 -16.2166 12.9049 -18.9551
7 -16.6513 12.432 -20.629
8 -10.4485 10.0028 -19.5699
7 -10.9921 11.7114 -18.3192
7 -11.9249 10.1716 -18.0178
9 -9.85292 9.27007 -19.0253
9 -10.8814 9.37418 -20.3481
9 -9.68442 10.4966 -20.1703
1 16.8481 12.42 12.7031
2 16.6316 13.4446 11.9069
1 15.6202 14.0684 12.3016
3 15.2713 13.605 13.5774
3 16.0538 12.514 13.794
4 17.9359 11.4458 12.5984
5 17.2463 13.6436 11.0414
4 14.9334 15.2199 11.6053
6 14.3764 13.8952 14.108
6 15.9468 11.8607 14.6473
7 17.7234 10.4825 13.0621
7 18.1564 11.1995 11.5597
7 -17.7637 11.8881 13.1324
8 14.9226 15.3141 10.0265
7 13.9407 15.3853 12.0238
7 15.4773 16.0069 12.1277
9 13.9445 15.0299 9.63821
9 14.9342 16.3878 9.83949
9 15.6846 14.8191 9.42445
1 -18.0592 4.3991 -24.6743
2 -17.5833 3.17352 -24.6938
1 -18.0428 2.52012 -23.6214
3 17.7224 3.35951 -22.9378
3 17.678 4.52884 -23.5738
4 -17.7879 5.45514 -25.6599
5 -17.0054 2.78608 -25.5198
4 -17.699 1.13034 -23.1346
6 17.2881 3.10823 -21.9814
6 17.1321 5.41063 -23.2724
7 17.831 5.65101 -26.2078
7 -17.3577 6.42389 -25.4058
7 -17.0951 5.17557 -26.4536
8 -16.2962 0.984752 -22.6329
7 18.1558 0.708671 -22.3998
7 -17.7373 0.447279 -23.9832
9 -16.0101 -0.061538 -22.5256
9 -15.6843 1.33749 -23.4631
9 -16.1345 1.61736 -21.7602
1 -9.48697 5.97782 2.41491
2 -10.5913 5.38486 2.00485
1 -11.6442 6.0716 2.4891
3 -11.1819 7.2408 3.09782
3 -9.88014 7.10808 3.07026
4 -8.05815 5.50622 2.37045
5 -10.6171 4.43747 1.48698
4 -12.9995 5.4562 2.48134
6 -11.7318 8.0914 3.47271
6 -9.18354 7.84533 3.44122
7 -7.70988 5.34454 1.35032
7 -7.35226 6.2164 2.80109
7 -8.02399 4.60414 2.98134
8 -14.2158 6.30634 2.45482
7 -13.1033 4.61334 1.79802
7 -13.1029 4.83216 3.36902
9 -15.1043 5.79667 2.08218
9 -14.2255 6.79255 3.43032
9 -14.1608 7.12776 1.74044
1 7.7608 -16.5322 25.6882
2 6.81726 -16.2666 24.8392
1 6.99174 -15.0645 24.3481
3 7.97537 -14.4212 25.082
3 8.4474 -15.3568 25.9012
4 7.98572 -17.6582 26.546
5 5.98177 -16.9163 24.6243
4 6.13046 -14.517 23.3313
6 8.27288 -13.3899 24.9622
6 9.22772 -15.364 26.6479
7 7.44737 17.9724 26.2811
7 9.01715 -17.9952 26.443
7 7.86931 -17.4206 27.6035
8 4.71571 -14.2473 24.0219
7 6.47975 -13.5811 22.8953
7 6.07034 -15.2404 22.5182
9 4.56067 -13.3155 24.5658
9 3.85066 -14.092 23.3771
9 4.52949 -15.1021 24.6721
1 -4.66046 13.9853 26.8953
2 -5.1095 13.4591 27.9958
1 -5.6578 14.3593 28.7551
3 -5.59577 15.5507 28.087
3 -4.83521 15.341 27.0435
4 -4.25322 13.2403 25.6893
5 -4.84631 12.4794 28.3663
4 -6.3207 14.1177 30.028
6 -5.98988 16.4822 28.4655
6 -4.43378 15.9558 26.2515
7 -4.89852 13.2507 24.8109
7 -3.24281 13.5516 25.4242
7 -4.26786 12.1762 25.9253
8 -7.61623 13.3402 29.8029
7 -5.68096 13.3758 30.506
7 -6.3933 15.0044 30.6577
9 -7.42261 12.2982 29.5483
9 -8.197 13.1806 30.7114
9 -8.31725 13.7595 29.0812
1 5.67684 16.2956 -20.3895
2 4.46041 15.943 -19.9347
1 3.84821 15.1408 -20.7847
3 4.5383 15.1682 -21.9498
3 5.66429 15.883 -21.721
4 6.68171 17.1086 -19.701
5 4.21859 15.9856 -18.883
4 2.56015 14.4202 -20.6405
6 4.32332 14.6888 -22.8934
6 6.53066 16.0777 -22.3358
7 7.42436 16.4724 -19.2195
7 7.33482 17.7781 -20.2607
7 6.25973 17.7776 -18.9511
8 1.82642 14.7492 -19.295
7 1.78696 14.563 -21.3954
7 2.83158 13.3675 -20.7196
9 2.39118 14.6485 -18.3682
9 1.31693 15.7079 -19.3921
9 0.976316 14.0832 -19.1471
1 -13.5388 11.2684 19.2953
2 -12.6037 11.766 20.1673
1 -11.6656 10.8686 20.4092
3 -11.8651 9.90825 19.4171
3 -13.0326 10.0469 18.8199
4 -14.8937 11.8838 18.9328
5 -12.6576 12.7523 20.6041
4 -10.434 11.0468 21.1879
6 -11.0705 9.22567 19.1543
6 -13.579 9.55051 18.0315
7 -14.9103 12.171 17.8814
7 -15.6769 11.1481 19.1161
7 -15.1684 12.7693 19.5059
8 -9.34139 11.847 20.4004
7 -10.6311 11.509 22.1552
7 -10.1527 10.0092 21.3679
9 -8.49008 11.8835 21.0802
9 -9.10467 11.4469 19.4145
9 -9.64063 12.8937 20.3461
1 4.58222 -12.3182 30.5856
2 4.89894 -11.7385 31.7009
1 5.4881 -12.5618 32.5456
3 5.69344 -13.7063 31.8052
3 4.96585 -13.6133 30.6479
4 4.09185 -11.6664 29.2983
5 4.8084 -10.6754 31.868
4 5.84573 -12.2848 33.9999
6 6.2295 -14.5223 32.2669
6 4.89013 -14.3931 29.9045
7 3.37634 -12.3588 28.8548
7 3.62607 -10.697 29.476
7 4.95555 -11.5694 28.6405
8 6.14846 -13.5049 34.9352
7 6.68621 -11.5982 34.101
7 4.96363 -11.8072 34.4264
9 5.31559 -14.2065 34.9817
9 6.95733 -14.0638 34.4646
9 6.20163 -13.0972 35.9447
1 -10.8787 10.8188 -2.24571
2 -12.1285 11.2018 -2.32367
1 -12.3003 12.4662 -1.95431
3 -11.0424 12.9493 -1.71624
3 -10.1769 11.9659 -1.85051
4 -10.1919 9.53731 -2.49959
5 -12.8959 10.5148 -2.64842
4 -13.5497 13.2382 -1.82366
6 -10.9175 13.9438 -1.31385
6 -9.13518 11.9538 -1.56586
7 -9.43294 9.46938 -1.72015
7 -10.8927 8.71797 -2.33974
7 -9.73788 9.3988 -3.48082
8 -13.8314 14.1752 -3.02524
7 -14.3091 12.4564 -1.81592
7 -13.5313 13.74 -0.856216
9 -13.1682 15.0377 -3.09035
9 -13.5733 13.5927 -3.90971
9 -14.8492 14.5648 -3.01029
1 -17.15 5.04643 26.3202
2 -17.8296 5.4057 27.3944
1 -17.0152 5.78392 28.3481
3 -15.7565 5.92419 27.7534
3 -15.8145 5.41695 26.5418
4 -17.6004 4.41785 25.1427
5 17.6572 5.33384 27.6201
4 -17.4899 6.05414 29.7435
6 -14.9159 6.4119 28.2246
6 -15.0735 5.17223 25.7952
7 -17.2836 4.95301 24.2475
7 -17.246 3.40158 24.9704
7 17.8653 4.34551 25.3083
8 -16.7653 5.25228 30.86
7 -17.3235 7.12676 29.843
7 17.9715 6.052 29.8966
9 -17.3044 5.14955 31.8018
9 -16.5746 4.27723 30.4117
9 -15.8447 5.73439 31.1889
1 -9.21342 8.87467 -25.5414
2 -8.48943 9.85938 -25.1763
1 -8.19805 9.67299 -23.8892
3 -8.96974 8.5917 -23.3459
3 -9.53572 8.06784 -24.4445
4 -10.0041 8.75996 -26.7992
5 -8.17386 10.7151 -25.7547
4 -7.24674 10.4124 -23.0809
6 -9.04093 8.26129 -22.3202
6 -10.3136 7.32433 -24.5363
7 -11.0783 8.91235 -26.6948
7 -9.55857 9.52265 -27.4379
7 -9.78455 7.79436 -27.2548
8 -5.84408 9.78357 -23.418
7 -7.28532 11.4964 -23.1879
7 -7.49168 10.2 -22.0402
9 -5.39702 10.0798 -24.367
9 -5.1536 10.0859 -22.6307
9 -5.78813 8.6997 -23.317
1 -16.8119 -1.83847 34.7465
2 -16.0899 -2.88383 34.3311
1 -16.7771 -3.98951 34.2649
3 -18.0036 -3.66339 34.7204
3 -17.996 -2.4032 35.0702
4 -16.4647 -0.396243 34.8426
5 -15.023 -2.80875 34.1814
4 -16.137 -5.2608 34.0951
6 17.8921 -4.52238 34.8327
6 17.7888 -1.78539 35.5323
7 -15.8829 -0.0526914 35.698
7 -15.9793 -0.0454344 33.9319
7 -17.4347 0.0654112 35.0272
8 -16.4011 -6.2812 35.2994
7 -16.5276 -5.77497 33.2169
7 -15.0559 -5.13895 34.0272
9 -17.4241 -6.65696 35.2827
9 -15.7446 -7.15109 35.2768
9 -16.3099 -5.77359 36.2596
1 5.91613 10.0612 31.3633
2 5.96008 10.7408 30.2324
1 4.7288 10.9116 29.7363
3 3.83524 10.5199 30.7714
3 4.58576 10.0014 31.7947
4 7.09043 9.83307 32.2694
5 6.8912 10.8225 29.6913
4 4.34817 11.5115 28.4214
6 2.77192 10.708 30.7518
6 4.16854 9.53147 32.673
7 7.91142 10.5453 32.3515
7 6.76119 9.92961 33.3039
7 7.45376 8.80561 32.2491
8 2.89345 11.5933 28.0632
7 4.78011 12.5083 28.3322
7 4.85929 10.8759 27.6983
9 2.25275 10.7378 28.2769
9 2.5135 12.4311 28.6478
9 2.62974 11.8318 27.0328
1 8.13676 16.1239 3.06475
2 8.08346 15.4945 1.96243
1 6.86688 15.3257 1.47201
3 5.99556 15.7981 2.43754
3 6.81687 16.2517 3.47629
4 9.31704 16.4462 3.87831
5 8.94823 15.191 1.39109
4 6.78808 14.8756 0.0972436
6 4.93342 15.6147 2.36965
6 6.54103 16.8387 4.3398
7 9.24872 17.3552 4.47595
7 9.71171 15.6444 4.50233
7 10.1122 16.7475 3.19642
8 5.53761 15.2149 -0.675767
7 7.62726 15.2582 -0.483732
7 6.92529 13.7982 0.189138
9 5.49288 16.3018 -0.743927
9 5.73945 14.9624 -1.71672
9 4.63063 14.7962 -0.239664
1 -9.54672 -0.502033 20.0526
2 -9.45317 -1.27972 21.1396
1 -10.6074 -1.33908 21.8147
3 -11.5031 -0.55042 21.1067
3 -10.7954 0.0298577 20.0758
4 -8.39694 -0.197016 19.1673
5 -8.54598 -1.76419 21.4693
4 -10.9349 -2.28286 22.8998
6 -12.5288 -0.282326 21.3128
6 -11.1438 0.815422 19.4216
7 -7.80251 -1.07186 18.9039
7 -8.85491 -0.0463192 18.1898
7 -7.67799 0.584586 19.4129
8 -12.1781 -2.04694 23.6645
7 -10.9337 -3.25488 22.4065
7 -10.0247 -2.48697 23.4637
9 -12.3583 -2.78254 24.4484
9 -12.3236 -1.03483 24.0421
9 -13.103 -2.21052 23.1114
1 -10.2525 16.2572 -31.8688
2 -9.3083 15.6807 -32.4636
1 -9.86084 14.6216 -33.129
3 -11.215 14.5594 -32.8966
3 -11.4155 15.5794 -32.0899
4 -10.2066 17.4786 -30.9303
5 -8.25949 15.9382 -32.4741
4 -9.04179 13.641 -33.9165
6 -11.8345 13.7467 -33.2461
6 -12.3017 15.9343 -31.5848
7 -9.29209 18.069 -30.9864
7 -11.0207 18.2034 -30.9248
7 -10.2175 17.1516 -29.8906
8 -8.53685 14.3406 -35.2011
7 -8.23187 13.3174 -33.2628
7 -9.69682 12.8021 -34.1514
9 -7.95723 13.5636 -35.6995
9 -9.34542 14.4588 -35.9224
9 -7.91041 15.2325 -35.1863
1 2.24713 -9.13336 -20.2641
2 2.1987 -9.75583 -19.0644
1 1.27437 -10.6633 -19.22
3 0.648945 -10.5622 -20.4548
3 1.31222 -9.62028 -21.0888
4 3.01432 -7.89956 -20.6013
5 2.80138 -9.47612 -18.213
4 0.966668 -11.6952 -18.2464
6 -0.177023 -11.1709 -20.7919
6 1.20201 -9.23357 -22.0911
7 3.55767 -7.37461 -19.8156
7 3.64907 -8.02009 -21.4792
7 2.21747 -7.18636 -20.8122
8 2.03396 -12.1052 -17.3687
7 0.192378 -11.319 -17.5778
7 0.516654 -12.6153 -18.6194
9 1.67015 -12.7976 -16.6095
9 2.84217 -12.5903 -17.916
9 2.44572 -11.2262 -16.8728
1 15.4121 17.5032 -24.0573
2 15.6411 17.5902 -22.7319
1 14.5254 17.7984 -22.1111
3 13.5419 17.871 -23.0444
3 14.0423 17.6586 -24.341
4 16.3319 16.9679 -25.1108
5 16.5894 17.4249 -22.2422
4 14.169 17.8059 -20.7164
6 12.5026 17.8785 -22.7509
6 13.6907 17.5659 -25.3579
7 16.0301 17.1168 -26.1475
7 17.3294 17.4059 -25.0757
7 16.5492 15.9212 -24.8979
8 14.6517 -17.5 -20.0086
7 13.0892 17.7033 -20.6088
7 14.5794 16.8948 -20.281
9 13.9871 -16.6603 -20.2121
9 14.6562 -17.5442 -18.9195
9 15.7145 -17.3673 -20.2106
1 -17.642 0.806081 -13.9318
2 18.209 1.81809 -14.4079
1 17.1752 1.30065 -15.1557
3 17.0045 0.0167512 -14.7278
3 18.0911 -0.296066 -14.0745
4 -16.4133 0.947434 -13.1239
5 -17.9686 2.83394 -14.356
4 16.2854 2.11581 -16.0224
6 16.2341 -0.632319 -15.1171
6 -18.252 -1.23277 -13.5745
7 -16.5294 0.525352 -12.1257
7 -15.6051 0.461519 -13.6705
7 -16.2508 2.00366 -12.9092
8 16.1659 3.57659 -15.6841
7 16.5412 2.0267 -17.0782
7 15.3143 1.64766 -15.8615
9 15.6153 4.21897 -16.3713
9 15.9382 3.78319 -14.6384
9 17.1328 4.06074 -15.821
1 -3.48053 8.993 8.33942
2 -3.82322 8.59976 7.13258
1 -5.03678 9.10424 6.92075
3 -5.53425 9.60863 8.0641
3 -4.52814 9.70864 8.93201
4 -2.24629 8.54581 9.0139
5 -3.25261 7.98895 6.44868
4 -5.76862 8.98016 5.63298
6 -6.51625 10.026 8.23106
6 -4.5484 10.2223 9.88184
7 -1.9629 9.53492 9.37371
7 -2.26625 7.99512 9.95434
7 -1.37743 8.2369 8.43272
8 -6.34132 10.3129 5.14202
7 -5.03626 8.72248 4.8679
7 -6.51998 8.2016 5.50107
9 -7.07327 10.0988 4.36321
9 -6.94479 10.8641 5.8632
9 -5.58776 11.0232 4.802
1 6.09263 -9.64649 16.1904
2 4.93615 -8.96104 16.1148
1 3.93965 -9.78929 16.3488
3 4.43671 -11.0479 16.631
3 5.76726 -10.9593 16.599
4 7.41343 -9.03761 16.0082
5 4.8116 -7.89496 15.995
4 2.49907 -9.46703 16.2199
6 3.79131 -11.8974 16.7991
6 6.49821 -11.7469 16.7075
7 7.38088 -8.20204 15.309
7 7.78252 -8.58664 16.9293
7 8.07966 -9.79284 15.5912
8 1.50316 -10.6892 16.3806
7 2.24229 -8.63462 16.8751
7 2.32436 -8.94536 15.2789
9 1.73063 -11.4029 15.5888
9 1.60514 -11.1247 17.3746
9 0.452345 -10.5397 16.1325
1 14.1249 6.89612 -32.8876
2 15.1982 7.62023 -33.1756
1 15.269 8.64813 -32.436
3 14.1807 8.63209 -31.606
3 13.3959 7.57539 -31.9314
4 13.6766 5.63956 -33.5026
5 15.8121 7.34232 -34.0196
4 16.4404 9.62627 -32.39
6 14.13 9.3839 -30.8323
6 12.5131 7.17088 -31.4588
7 13.945 4.68051 -33.0595
7 12.697 5.67545 -33.9793
7 14.3857 5.65847 -34.3301
8 15.9913 11.0425 -32.5921
7 16.8636 9.64115 -31.3856
7 17.1498 9.46378 -33.2014
9 16.7452 11.7758 -32.3057
9 15.6702 11.2004 -33.6217
9 15.1445 11.2231 -31.93
1 -14.7314 -15.9538 25.4661
2 -13.6327 -15.6986 24.8165
1 -12.6162 -16.3035 25.3233
3 -13.0435 -16.7816 26.5419
3 -14.3921 -16.6223 26.5624
4 -16.0144 -15.242 25.2939
5 -13.5203 -15.1588 23.8879
4 -11.2121 -16.3602 24.7436
6 -12.3839 -17.2091 27.2826
6 -15.1562 -16.9335 27.2594
7 -16.0549 -14.8873 24.264
7 -16.8839 -15.8571 25.5253
7 -16.0945 -14.4182 26.0031
8 -10.6274 -17.7712 24.5262
7 -11.1725 -15.7278 23.8567
7 -10.434 -15.9556 25.3909
9 -11.2721 18.1068 23.9487
9 -9.6874 -17.8972 23.9889
9 -10.4481 18.2383 25.461
1 3.15619 8.74081 -15.739
2 2.72699 9.78027 -15.0387
1 3.80047 10.5379 -14.722
3 4.85255 10.0183 -15.4289
3 4.37027 9.04612 -16.2153
4 2.491 7.49409 -15.9751
5 1.80706 9.70242 -14.4783
4 3.93951 11.48 -13.6276
6 5.85848 10.4002 -15.336
6 4.84442 8.28441 -16.8164
7 2.66125 7.19824 -17.0102
7 2.75481 6.67308 -15.3084
7 1.43672 7.71707 -15.8112
8 5.19129 11.3047 -12.7663
7 4.04127 12.4897 -14.0254
7 3.03271 11.5108 -13.0236
9 6.09107 11.7584 -13.1819
9 5.00234 11.7335 -11.7822
9 5.26463 10.2172 -12.7779
1 -1.29106 -17.6416 26.8537
2 -1.55137 -16.7509 27.8302
1 -1.3532 -15.5146 27.4022
3 -1.00787 -15.6693 26.0812
3 -1.02121 -16.9767 25.7534
4 -1.2469 17.4477 27.0336
5 -1.90644 -16.9565 28.8293
4 -1.42607 -14.1989 28.0629
6 -0.712845 -14.8416 25.4533
6 -0.721167 -17.4668 24.839
7 -0.782611 17.2773 28.0049
7 -2.29863 17.1653 27.0803
7 -0.608078 16.9457 26.307
8 -2.07594 -14.2024 29.4023
7 -0.362915 -13.9618 28.1032
7 -2.0018 -13.6168 27.3433
9 -1.48993 -14.8603 30.0441
9 -2.04265 -13.2535 29.9376
9 -3.08931 -14.6022 29.4381
1 10.2731 14.5668 -14.6086
2 9.87361 15.6129 -15.2704
1 10.4967 15.7053 -16.4575
3 11.2925 14.6397 -16.5911
3 11.0039 13.8248 -15.5304
4 9.80934 14.1788 -13.2462
5 9.22061 16.4071 -14.9401
4 10.2583 16.7665 -17.4577
6 11.9011 14.3956 -17.4492
6 11.464 12.899 -15.2181
7 9.42107 13.1625 -13.3117
7 10.6533 14.3121 -12.5694
7 9.10009 14.9169 -12.8716
8 10.848 16.4128 -18.8961
7 9.17087 16.8103 -17.5189
7 10.6495 17.6743 -16.9984
9 10.4283 15.4886 -19.2934
9 10.4007 17.1513 -19.5615
9 11.9379 16.4209 -18.8861
1 1.36402 -3.00049 -28.2396
2 1.06153 -2.1983 -29.2191
1 0.870974 -0.965464 -28.7804
3 0.814983 -0.990222 -27.4472
3 1.16451 -2.22599 -27.0711
4 1.72153 -4.41217 -28.3539
5 1.17796 -2.43713 -30.2659
4 0.661233 0.256879 -29.6027
6 0.58257 -0.128338 -26.8393
6 1.13142 -2.67415 -26.089
7 0.823343 -4.99493 -28.5582
7 2.45239 -4.55307 -29.1502
7 1.98494 -4.72899 -27.3448
8 1.9567 0.847271 -30.2666
7 0.00347281 -0.0167678 -30.4276
7 0.139284 0.971916 -28.9667
9 1.75069 1.67218 -30.9487
9 2.69417 1.10174 -29.5054
9 2.42085 0.135564 -30.9494
1 -12.429 13.7904 12.547
2 -13.6428 13.3815 12.9004
1 -14.4906 14.3852 12.7675
3 -13.731 15.4263 12.2518
3 -12.5169 15.0374 12.0889
4 -11.2214 13.0038 12.3966
5 -13.9135 12.3623 13.1336
4 -15.9278 14.3456 13.0161
6 -14.2673 16.3252 11.9857
6 -11.5892 15.4486 11.7194
7 -10.4367 13.53 11.853
7 -10.8622 12.7496 13.3938
7 -11.5147 12.0994 11.8634
8 -16.6336 15.5293 13.5693
7 -16.4125 14.2321 12.0465
7 -16.3503 13.4796 13.5258
9 -17.7024 15.3489 13.6843
9 -16.4697 15.6493 14.6402
9 -16.4294 16.4939 13.1046
1 -11.4454 -14.7865 -14.6851
2 -10.3163 -15.0382 -14.0496
1 -9.28862 -14.4289 -14.5759
3 -9.79474 -13.7855 -15.6232
3 -11.1229 -13.9649 -15.7289
4 -12.7225 -15.2888 -14.3353
5 -10.2657 -15.6631 -13.1702
4 -7.93172 -14.347 -14.0399
6 -9.16668 -13.2462 -16.3168
6 -11.7799 -13.521 -16.4622
7 -13.4933 -14.519 -14.2995
7 -13.101 -16.1045 -14.9513
7 -12.699 -15.6768 -13.317
8 -6.74114 -14.1495 -15.0591
7 -7.80121 -13.5198 -13.3422
7 -7.63633 -15.2091 -13.4418
9 -6.89815 -13.2368 -15.6338
9 -5.79901 -14.0327 -14.5235
9 -6.52994 -15.1076 -15.5341
1 -12.1099 3.79456 -5.50702
2 -11.4259 4.8815 -5.42934
1 -10.9186 5.17466 -6.58143
3 -11.2172 4.14711 -7.44657
3 -11.9419 3.29884 -6.79114
4 -12.9381 3.27947 -4.35728
5 -11.2196 5.48175 -4.55553
4 -10.2438 6.39478 -7.04452
6 -10.8821 4.17968 -8.47277
6 -12.4683 2.43711 -7.17424
7 -13.8256 3.88015 -4.15826
7 -13.1785 2.24913 -4.61945
7 -12.2236 3.20043 -3.53798
8 -11.1716 7.40084 -7.90225
7 -9.97464 6.83288 -6.0834
7 -9.36985 6.27913 -7.68561
9 -12.0453 7.56602 -7.27179
9 -10.6653 8.35501 -8.0484
9 -11.5524 7.06143 -8.86554
1 8.76696 0.309144 0.456275
2 9.91419 0.445495 -0.182773
1 9.80593 1.1772 -1.29564
3 8.46612 1.38114 -1.37352
3 7.77899 0.991103 -0.288238
4 8.57781 -0.358684 1.81111
5 10.7857 -0.0888666 0.165596
4 10.9012 1.44188 -2.28266
6 8.11307 1.88801 -2.25943
6 6.76914 1.09438 0.0804525
7 9.4458 -0.963856 2.07276
7 8.37745 0.281869 2.66997
7 7.7082 -1.01194 1.73947
8 10.499 1.34045 -3.78086
7 11.3297 2.43577 -2.15345
7 11.7596 0.793861 -2.10552
9 9.79402 0.516872 -3.89402
9 9.87918 2.22305 -3.93874
9 11.2964 1.36917 -4.52345
1 -15.0732 -18.0898 -4.22221
2 -16.0535 -17.2934 -4.57209
1 -16.8517 -17.1352 -3.52875
3 -16.3842 -17.8698 -2.44681
3 -15.1907 18.2195 -2.86103
4 -14.1157 17.6539 -4.95977
5 -16.223 -17.1516 -5.62923
4 -18.0781 -16.3187 -3.52611
6 -16.8487 -17.924 -1.47328
6 -14.4793 17.712 -2.22648
7 -14.492 16.6341 -4.879
7 -14.0853 17.9416 -6.01069
7 -13.1089 17.7797 -4.5616
8 17.3096 -17.1213 -2.98614
7 -17.8094 -15.5078 -2.84909
7 18.1789 -16.0155 -4.53394
9 17.5354 -17.2776 -1.93128
9 16.3185 -16.6685 -3.01268
9 17.342 -18.0622 -3.53538
1 -4.01428 -10.1067 -32.7807
2 -3.25963 -10.4544 -33.841
1 -2.25984 -9.61561 -33.8944
3 -2.53491 -8.51863 -33.0065
3 -3.66488 -8.84924 -32.364
4 -5.13069 -10.8837 -32.2017
5 -3.24455 -11.3929 -34.3753
4 -1.11284 -9.59149 -34.8322
6 -1.88679 -7.65866 -32.9241
6 -4.22446 -8.20577 -31.7013
7 -6.09364 -10.4056 -32.3812
7 -5.26966 -11.7993 -32.7766
7 -4.912 -11.0439 -31.146
8 -0.210673 -10.8038 -34.5727
7 -1.44319 -9.84077 -35.8406
7 -0.458908 -8.72752 -34.7138
9 0.569516 -10.7502 -35.332
9 0.354784 -10.7675 -33.6416
9 -0.759379 -11.7319 -34.7328
1 -10.147 -12.2386 -30.235
2 -10.3848 -10.9491 -30.2739
1 -11.1999 -10.7014 -31.2872
3 -11.6646 -11.8668 -31.7553
3 -10.8675 -12.8299 -31.2223
4 -9.18236 -13.0098 -29.4277
5 -9.69308 -10.2589 -29.8139
4 -11.4645 -9.33516 -31.8166
6 -12.3541 -12.0908 -32.5558
6 -10.9675 -13.8765 -31.4691
7 -9.71691 -13.9263 -29.178
7 -8.26989 -13.1704 -30.0019
7 -8.88073 -12.4709 -28.5295
8 -12.9157 -9.03379 -32.07
7 -11.0543 -8.54916 -31.1825
7 -10.842 -9.21104 -32.7027
9 -13.43 -9.78343 -32.6713
9 -13.4407 -8.97277 -31.1167
9 -12.9643 -8.04543 -32.527
1 -2.36088 12.1283 -1.31688
2 -2.77975 13.085 -2.11252
1 -1.89726 14.1073 -2.04446
3 -0.796754 13.6857 -1.3131
3 -1.12424 12.4822 -0.758772
4 -3.18365 11.0814 -0.867372
5 -3.63844 13.0668 -2.76728
4 -1.95511 15.2739 -2.91959
6 0.135169 14.1842 -1.09086
6 -0.648136 11.9385 0.0437942
7 -2.61291 10.1828 -0.633182
7 -3.396 11.3617 0.164335
7 -3.97743 10.7545 -1.53904
8 -0.641895 16.0694 -2.99997
7 -2.18634 14.9604 -3.93758
7 -2.72373 16.0062 -2.67248
9 -0.920631 16.8781 -3.67557
9 -0.223396 16.4479 -2.0674
9 0.107561 15.4509 -3.49389
1 -14.1996 0.229019 -32.796
2 -14.2972 1.30252 -32.0982
1 -14.448 1.06553 -30.8053
3 -14.3943 -0.313265 -30.6917
3 -14.3558 -0.850655 -31.944
4 -13.8369 0.267149 -34.2099
5 -14.2754 2.31473 -32.4742
4 -14.841 2.07628 -29.8489
6 -14.536 -0.715456 -29.6994
6 -14.33 -1.85711 -32.3348
7 -12.7688 0.0500765 -34.2077
7 -14.4605 -0.427905 -34.7722
7 -13.986 1.29374 -34.5446
8 -13.7371 3.12504 -29.6405
7 -15.7606 2.45495 -30.2952
7 -15.0726 1.54344 -28.9266
9 -13.2006 3.43835 -30.5361
9 -14.1956 3.94354 -29.0855
9 -12.9684 2.6344 -29.0434
1 1.60495 18.2608 13.6225
2 1.77857 -17.0043 13.6581
1 3.04511 -16.6849 13.6212
3 3.68103 -17.8918 13.7008
3 2.81665 17.6785 13.6881
4 0.306452 17.6066 13.4244
5 0.982593 -16.2761 13.6081
4 3.73603 -15.3824 13.5908
6 4.76058 -17.8874 13.7316
6 2.87114 16.6008 13.6431
7 -0.508447 -18.21 13.4245
7 0.195662 16.9736 12.544
7 0.253685 16.986 14.3189
8 2.95811 -14.1922 14.2936
7 4.68102 -15.5145 14.1177
7 4.00637 -15.0125 12.6017
9 2.41416 -14.3458 15.2256
9 3.56795 -13.3069 14.4736
9 2.2043 -13.9128 13.5575
1 -17.8779 -16.9766 16.857
2 -17.2891 -16.5971 18.0357
1 -17.9465 -15.5384 18.536
3 17.6172 -15.2241 17.6695
3 17.5239 -16.1984 16.687
4 -17.578 18.2349 16.2929
5 -16.4014 -17.0372 18.4655
4 -17.5967 -14.6907 19.6736
6 17.0189 -14.3657 17.9374
6 16.83 -16.3075 15.8667
7 18.2484 17.5489 16.7483
7 -17.8581 -18.2342 15.2419
7 -16.63 17.7383 16.4999
8 -16.0884 -14.5938 20.0335
7 -17.9748 -13.698 19.4295
7 -18.126 -15.1527 20.5069
9 -15.5193 -13.981 19.3344
9 -15.9091 -14.1001 20.9887
9 -15.4936 -15.504 20.109
1 -0.69137 14.0391 4.85785
2 -1.88755 13.581 5.15607
1 -2.02839 13.8245 6.44323
3 -1.05683 14.5892 7.0018
3 -0.143223 14.6506 5.9985
4 -0.137375 14.1667 3.48922
5 -2.58894 13.235 4.41123
4 -3.16022 13.3373 7.15428
6 -1.11561 15.078 7.96308
6 0.846238 15.0784 5.93209
7 0.749586 13.5375 3.41442
7 -0.800198 13.6507 2.7946
7 -0.0264177 15.2278 3.26589
8 -4.54875 13.27 6.41506
7 -3.04071 12.2778 7.38052
7 -3.18316 13.9424 8.06063
9 -5.02002 14.2529 6.40558
9 -4.66818 12.8567 5.41356
9 -5.2425 12.7287 7.05832
1 -9.05332 16.3635 20.4932
2 -10.3915 16.4507 20.6636
1 -10.8672 17.4667 19.9974
3 -9.76284 18.0094 19.3699
3 -8.70729 17.329 19.5703
4 -8.1366 15.5378 21.1749
5 -10.9844 15.9162 21.3911
4 -12.2162 18.0032 19.7526
6 -9.83992 -17.6679 18.7255
6 -7.68723 17.629 19.3808
7 -7.20387 16.0125 21.4794
7 -8.48125 15.1651 22.1394
7 -7.95959 14.5874 20.6713
8 -12.4525 -17.1314 20.3216
7 -12.5739 17.8625 18.7326
7 -12.8728 17.3199 20.2912
9 -12.5422 -17.1324 21.4079
9 -11.7387 -16.3647 20.0204
9 -13.3787 -16.7543 19.8879
1 14.1989 0.347907 -26.1668
2 13.7365 1.49532 -26.7073
1 13.1955 2.34374 -25.829
3 13.3723 1.71867 -24.6382
3 13.7364 0.400485 -24.8631
4 14.7046 -0.858061 -26.916
5 13.9057 1.69373 -27.7554
4 12.8231 3.7647 -26.0086
6 13.0625 2.02403 -23.6497
6 13.913 -0.261294 -24.0281
7 13.9213 -1.31676 -27.5193
7 15.4466 -0.686826 -27.6959
7 15.2112 -1.58983 -26.2866
8 12.311 4.0788 -27.5074
7 12.0014 3.99229 -25.3296
7 13.5046 4.50749 -25.5941
9 11.5614 3.32885 -27.7601
9 11.9613 5.10488 -27.6215
9 13.0399 3.89791 -28.2974
1 -11.629 7.55279 25.2589
2 -11.8261 8.80219 25.0667
1 -12.478 9.26473 26.1301
3 -12.4588 8.34599 27.1564
3 -11.843 7.27516 26.6323
4 -11.0383 6.53323 24.3285
5 -11.5878 9.33613 24.1587
4 -12.9001 10.7242 26.3484
6 -12.8662 8.56612 28.1321
6 -11.7145 6.35396 27.1812
7 -10.5292 5.81106 24.9668
7 -11.8064 6.03509 23.737
7 -10.3322 6.91772 23.5924
8 -12.8809 11.2489 27.7718
7 -12.2329 11.2646 25.6767
7 -13.8186 11.0767 25.8791
9 -13.655 10.8115 28.4024
9 -11.8934 11.1667 28.2259
9 -13.0683 12.3211 27.8292
1 -0.354546 5.12045 29.5675
2 -0.368505 6.40612 29.3003
1 0.530111 7.09008 29.943
3 1.24258 6.14525 30.6668
3 0.762352 4.89422 30.3728
4 -1.41768 4.09318 29.2297
5 -1.13018 6.96654 28.7786
4 0.562786 8.59732 30.1491
6 1.98796 6.54121 31.3406
6 0.995912 3.92082 30.7782
7 -1.68992 4.20904 28.1807
7 -1.05801 3.08409 29.4309
7 -2.36154 4.31068 29.7297
8 0.797588 8.80212 31.5988
7 1.45444 8.97561 29.6491
7 -0.33589 8.9367 29.634
9 0.0548827 8.30351 32.2216
9 1.81478 8.49342 31.8398
9 0.810441 9.888 31.6926
1 10.6075 9.3137 -2.06601
2 11.2846 8.23227 -1.77876
1 10.4505 7.44323 -1.11343
3 9.31073 8.14234 -0.877033
3 9.3291 9.28018 -1.51879
4 11.1078 10.4206 -2.92033
5 12.3017 7.94885 -2.00585
4 10.7111 6.0979 -0.468793
6 8.5523 7.80308 -0.187046
6 8.60022 10.0745 -1.583
7 10.5153 10.6956 -3.7929
7 11.0546 11.249 -2.21395
7 12.11 10.3859 -3.34753
8 9.93292 4.93044 -1.23329
7 11.786 5.94509 -0.371729
7 10.3434 6.36292 0.522493
9 8.84594 4.90633 -1.15594
9 10.2424 4.99075 -2.2767
9 10.3574 3.95569 -0.992994
1 5.44788 -0.492741 -4.85993
2 4.69652 0.611098 -4.53266
1 3.53661 0.45333 -5.12302
3 3.58599 -0.664477 -5.95303
3 4.77006 -1.26853 -5.83373
4 6.77516 -0.962394 -4.33664
5 5.03736 1.42947 -3.91581
4 2.49879 1.50862 -5.19587
6 2.64666 -1.03153 -6.33945
6 4.99894 -2.25736 -6.20282
7 6.79108 -0.988977 -3.24708
7 7.12343 -1.94695 -4.64884
7 7.42668 -0.186739 -4.73912
8 2.32046 2.04726 -6.60845
7 1.64254 1.19399 -4.59925
7 2.88989 2.31266 -4.57244
9 2.0301 1.29943 -7.34638
9 1.53298 2.80052 -6.58415
9 3.22903 2.60904 -6.82527
1 16.0118 10.2921 -23.8991
2 14.9262 10.0058 -24.5346
1 15.2763 9.52833 -25.6945
3 16.6729 9.38702 -25.7324
3 17.1134 9.79597 -24.5402
4 16.0732 11.1346 -22.7099
5 13.9498 10.0345 -24.0741
4 14.289 9.05547 -26.7438
6 17.0586 8.86863 -26.5977
6 18.1074 9.88914 -24.1284
7 16.816 10.9785 -21.9276
7 16.2928 12.1442 -23.057
7 15.154 11.1761 -22.1255
8 14.1198 7.55888 -26.7317
7 13.3234 9.55185 -26.6473
7 14.4814 9.31901 -27.7838
9 13.232 7.36884 -27.3348
9 14.9447 6.99278 -27.1643
9 13.8164 7.13189 -25.7758
1 11.0204 12.2697 17.6218
2 9.78844 12.8272 17.7651
1 8.8659 11.8839 17.9218
3 9.5152 10.7297 17.903
3 10.8452 10.8691 17.7539
4 12.3063 12.9642 17.6312
5 9.63658 13.8963 17.7495
4 7.40366 12.1754 17.9747
6 8.91279 9.83515 17.9605
6 11.6204 10.158 17.5093
7 12.2121 13.6841 18.4442
7 13.2068 12.4134 17.9032
7 12.4426 13.4731 16.677
8 6.64896 10.8155 18.0158
7 7.2505 12.7768 18.8707
7 7.2092 12.8523 17.1428
9 6.91288 10.2398 17.1287
9 6.8043 10.1424 18.8589
9 5.56601 10.9214 17.9518
1 -2.07394 -7.29151 23.0329
2 -3.12401 -6.57566 22.7079
1 -3.72408 -6.12982 23.8154
3 -2.93244 -6.50262 24.8534
3 -1.97055 -7.29851 24.4022
4 -1.15335 -7.7651 22.0683
5 -3.40655 -6.39583 21.6812
4 -4.8892 -5.23381 23.8536
6 -3.15344 -6.20803 25.8686
6 -1.25084 -7.66382 25.1199
7 -1.38244 -7.35941 21.0829
7 -0.0793587 -7.70782 22.2454
7 -1.06177 -8.84238 21.9298
8 -6.01661 -5.5769 22.8511
7 -5.44213 -5.12645 24.7868
7 -4.50443 -4.23172 23.6642
9 -6.5229 -6.49284 23.1558
9 -6.69635 -4.72482 22.8483
9 -5.63582 -5.73548 21.8422
1 -17.5859 3.51569 -1.60777
2 18.0167 2.58867 -1.80415
1 17.7816 2.3921 -3.10576
3 -17.9102 3.27973 -3.76345
3 -17.2537 4.02925 -2.87858
4 -17.1657 4.10944 -0.377895
5 17.4244 2.24892 -0.967416
4 16.9778 1.33719 -3.65273
6 -17.8269 3.13801 -4.83086
6 -16.5914 4.86976 -3.02483
7 -17.2359 5.19704 -0.395252
7 -17.8669 3.75097 0.375708
7 -16.2536 3.73989 0.0907447
8 16.0331 0.615457 -2.71588
7 16.4863 1.94517 -4.41227
7 17.6862 0.617616 -4.06307
9 15.4584 -0.243587 -3.06211
9 16.5903 0.292913 -1.83636
9 15.2311 1.23317 -2.31166
1 9.61102 -3.0393 12.8478
2 10.3088 -3.47879 11.8578
1 9.50395 -3.73194 10.854
3 8.23613 -3.63773 11.3755
3 8.29726 -3.14923 12.569
4 10.235 -2.57962 14.0773
5 11.3766 -3.54452 11.7095
4 9.86151 -4.15621 9.51941
6 7.35096 -3.92142 10.8256
6 7.53364 -2.97519 13.3126
7 9.84725 -3.08147 14.9638
7 11.2743 -2.87354 14.2237
7 10.2066 -1.49856 14.2137
8 8.81121 -4.19289 8.30248
7 10.563 -3.5697 8.92615
7 10.3126 -5.14483 9.60477
9 8.18287 -5.03277 8.59893
9 8.08791 -3.38833 8.16967
9 9.36998 -4.43776 7.39921
1 -7.1054 3.05821 -26.3512
2 -7.73992 3.25311 -27.4635
1 -8.26417 2.15918 -27.9221
3 -7.69855 1.17845 -27.1676
3 -6.9012 1.68883 -26.2323
4 -6.50269 4.08335 -25.4908
5 -7.99105 4.24011 -27.8229
4 -9.13968 1.95747 -29.1548
6 -7.7841 0.147447 -27.4777
6 -6.25556 1.20955 -25.5113
7 -5.86175 4.75265 -26.0647
7 -7.31145 4.64314 -25.0211
7 -5.9313 3.67765 -24.656
8 -9.13357 3.33795 -29.9433
7 -8.84408 1.10291 -29.7635
7 -10.1677 1.71818 -28.8829
9 -9.55837 3.17634 -30.934
9 -9.76365 4.12587 -29.5307
9 -8.12145 3.7254 -30.06
1 -16.456 -10.4459 24.6989
2 -16.3288 -9.83986 25.8757
1 -17.324 -8.98807 26.0326
3 -17.9377 -8.81304 24.8279
3 -17.3443 -9.69712 23.9474
4 -15.625 -11.6664 24.2583
5 -15.6627 -10.0405 26.7018
4 -17.5829 -8.20364 27.3025
6 17.7841 -8.11863 24.7103
6 -17.5909 -9.7777 22.899
7 -14.6654 -11.3839 23.8251
7 -15.4493 -12.3611 25.0796
7 -16.1232 -12.207 23.4536
8 17.7156 -8.75778 27.9885
7 -16.8515 -8.43948 28.0756
7 -17.5484 -7.12359 27.1597
9 17.7233 -9.847 27.9481
9 17.6938 -8.34157 28.9957